LAMMPS data file via write_data, version 7 Jan 2014, timestep = 37500

17 bonds
4 extra bond per atom
17 atoms
1 bond types
1 atom types

-0.5e+00 7.5e+00 xlo xhi
-0.5e+00 7.5e+00 ylo yhi
-0.5e+00 7.5e+00 zlo zhi

Masses

1 1

Pair Coeffs

1 1 1

Bond Coeffs

1 30 1.5 1 1

Atoms

0 1 1 0.000000 2.000000 0.000000 plus
1 1 1 1.000000 2.000000 0.000000 plus
2 1 1 2.000000 2.000000 0.000000 plus
3 1 1 3.000000 2.000000 0.000000 plus
4 1 1 4.000000 2.000000 0.000000 plus
5 1 1 5.000000 2.000000 0.000000 plus
6 1 1 6.000000 2.000000 0.000000 plus
7 1 1 7.000000 2.000000 0.000000 plus
8 1 1 0.000000 1.000000 0.000000 plus
9 1 1 1.000000 1.000000 0.000000 plus
10 1 1 2.000000 1.000000 0.000000 plus
11 1 1 3.000000 1.000000 0.000000 plus
12 1 1 4.000000 1.000000 0.000000 plus
13 1 1 6.000000 0.000000 0.000000 plus
14 1 1 7.000000 0.000000 0.000000 plus
15 1 1 8.000000 0.000000 0.000000 plus
16 1 1 9.000000 0.000000 0.000000 plus

Velocities

0 0. 0. 0.
1 0. 0. 0.
2 0. 0. 0.
3 0. 0. 0.
4 0. 0. 0.
5 0. 0. 0.
6 0. 0. 0.
7 0. 0. 0.
8 0. 0. 0.
9 0. 0. 0.
10 0. 0. 0.
11 0. 0. 0.
12 0. 0. 0.
13 0. 0. 0.
14 0. 0. 0.
15 0. 0. 0.
16 0. 0. 0.

Bonds

1 1 0 1
2 1 1 2
3 1 2 10
4 1 2 3
5 1 3 11
6 1 3 4
7 1 4 5
8 1 5 6
9 1 6 13
10 1 6 7
11 1 8 9
12 1 9 10
13 1 10 11
14 1 11 12
15 1 13 14
16 1 14 15
17 1 15 16