ITEM: TIMESTEP
0
ITEM: NUMBER OF ENTRIES
17
ITEM: BOX BOUNDS pp pp pp
-0.50000 7.50000
-0.50000 7.50000
-0.50000 7.50000
ITEM: ENTRIES id mol type x y z
0 1
1 2
2 10
2 3
3 11
3 4
4 5
5 6
6 13
6 7
8 9
9 10
10 11
11 12
13 14
14 15
15 16
